/*--------------------------------*- C++ -*----------------------------------*\
| =========                 |                                                 |
| \\      /  F ield         | OpenFOAM: The Open Source CFD Toolbox           |
|  \\    /   O peration     | Version:  3.0.0                                 |
|   \\  /    A nd           | Web:      www.OpenFOAM.org                      |
|    \\/     M anipulation  |                                                 |
\*---------------------------------------------------------------------------*/
FoamFile
{
    version     2.0;
    format      ascii;
    class       volScalarField;
    location    "0";
    object      p;
}
// * * * * * * * * * * * * * * * * * * * * * * * * * * * * * * * * * * * * * //

dimensions      [0 0 0 0 0 0 0];

internalField   nonuniform List<scalar> 
20
(
20.05
20.15
20.25
20.35
20.45
20.55
20.65
20.75
20.85
20.95
21.05
21.15
21.25
21.35
21.45
21.55
21.65
21.75
21.85
21.95
)
;

boundaryField
{
    top
    {
        type            empty;
    }
    left
    {
        type            fixedValue;
        value           uniform 20;
    }
    right
    {
        type            fixedGradient;
        gradient        uniform 2;
    }
    bottom
    {
        type            empty;
    }
    front
    {
        type            empty;
    }
    back
    {
        type            empty;
    }
}


// ************************************************************************* //
